------------------------------------------------------------
          Invoking FHI-aims ...

          When using FHI-aims, please cite the following reference:

            Volker Blum, Ralf Gehrke, Felix Hanke, Paula Havu,
            Ville Havu, Xinguo Ren, Karsten Reuter, and Matthias Scheffler,
            'Ab Initio Molecular Simulations with Numeric Atom-Centered Orbitals',
            Computer Physics Communications 180, 2175-2196 (2009)

          In addition, many other developments in FHI-aims are likely important for
          your particular application. A partial list of references is given at the end of
          this file. Thank you for giving credit to the authors of these developments.

          For any questions about FHI-aims, please visit our slack channel at

            https://fhi-aims.slack.com

          and our main development and support site at

            https://aims-git.rz-berlin.mpg.de .

          The latter site, in particular, has a wiki to collect information, as well
          as an issue tracker to log discussions, suggest improvements, and report issues
          or bugs. https://aims-git.rz-berlin.mpg.de is also the main development site
          of the project and all new and updated code versions can be obtained there.
          Please send an email to aims-coordinators@fhi-berlin.mpg.de and we will add
          you to these sites. They are for you and everyone is welcome there.

------------------------------------------------------------



  Date     :  20240112, Time     :  230730.169
  Time zero on CPU 1             :   0.439996000000000E+00  s.
  Internal wall clock time zero  :           474332850.169  s.

  FHI-aims created a unique identifier for this run for later identification
  aims_uuid : CFA83AA8-C359-4843-ADBF-8784B9A7EE24

  Build configuration of the current instance of FHI-aims
  -------------------------------------------------------
  FHI-aims version      : 221103
  Commit number         : GITDIR-NOTFOUND
  CMake host system     : Linux-4.18.0-348.23.1.el8_5.x86_64
  CMake version         : 3.20.2
  Fortran compiler      : /ssoft/spack/syrah/v1/opt/spack/linux-rhel8-icelake/intel-2021.6.0/intel-oneapi-mpi-2021.6.0-6mkuwtao6jyowm632fqb5bukxyf254xm/mpi/2021.6.0/bin/mpiifort (Intel) version 2021.6.0.20220226
  Fortran compiler flags: -O3 -ip -fp-model precise
  C compiler            : /ssoft/spack/syrah/v1/opt/spack/linux-rhel8-x86_64_v2/gcc-8.5.0/intel-oneapi-compilers-classic-2021.6.0-q3mi2mylw3zyuht6p72u25ruqnpptpym/bin/icc (Intel) version 2021.6.0.20220226
  C compiler flags      : -O3 -ip -fp-model precise -std=gnu99
  HIP compiler          :
  HIP compiler flags    :
  HIP GPU arch          :
  ELPA2 kernel          : AVX512
  Using MPI
  Using LibXC
  Using i-PI
  Using RLSY
  Linking against: /ssoft/spack/syrah/v1/opt/spack/linux-rhel8-icelake/intel-2021.6.0/intel-oneapi-mkl-2022.1.0-dtp7nj6bqavcu4or4ev3wjrva5hob7sd/mkl/2022.1.0/lib/intel64/libmkl_intel_lp64.so
                   /ssoft/spack/syrah/v1/opt/spack/linux-rhel8-icelake/intel-2021.6.0/intel-oneapi-mkl-2022.1.0-dtp7nj6bqavcu4or4ev3wjrva5hob7sd/mkl/2022.1.0/lib/intel64/libmkl_sequential.so
                   /ssoft/spack/syrah/v1/opt/spack/linux-rhel8-icelake/intel-2021.6.0/intel-oneapi-mkl-2022.1.0-dtp7nj6bqavcu4or4ev3wjrva5hob7sd/mkl/2022.1.0/lib/intel64/libmkl_core.so
                   /ssoft/spack/syrah/v1/opt/spack/linux-rhel8-icelake/intel-2021.6.0/intel-oneapi-mkl-2022.1.0-dtp7nj6bqavcu4or4ev3wjrva5hob7sd/mkl/2022.1.0/lib/intel64/libmkl_blacs_intelmpi_lp64.so
                   /ssoft/spack/syrah/v1/opt/spack/linux-rhel8-icelake/intel-2021.6.0/intel-oneapi-mkl-2022.1.0-dtp7nj6bqavcu4or4ev3wjrva5hob7sd/mkl/2022.1.0/lib/intel64/libmkl_scalapack_lp64.so

  Using       36 parallel tasks.
  Task        0 on host jst101 reporting.
  Task        1 on host jst101 reporting.
  Task        2 on host jst101 reporting.
  Task        3 on host jst101 reporting.
  Task        4 on host jst101 reporting.
  Task        5 on host jst101 reporting.
  Task        6 on host jst101 reporting.
  Task        7 on host jst101 reporting.
  Task        8 on host jst101 reporting.
  Task        9 on host jst101 reporting.
  Task       10 on host jst101 reporting.
  Task       11 on host jst101 reporting.
  Task       12 on host jst101 reporting.
  Task       13 on host jst101 reporting.
  Task       14 on host jst101 reporting.
  Task       15 on host jst101 reporting.
  Task       16 on host jst101 reporting.
  Task       17 on host jst101 reporting.
  Task       18 on host jst101 reporting.
  Task       19 on host jst101 reporting.
  Task       20 on host jst101 reporting.
  Task       21 on host jst101 reporting.
  Task       22 on host jst101 reporting.
  Task       23 on host jst101 reporting.
  Task       24 on host jst101 reporting.
  Task       25 on host jst101 reporting.
  Task       26 on host jst101 reporting.
  Task       27 on host jst101 reporting.
  Task       28 on host jst101 reporting.
  Task       29 on host jst101 reporting.
  Task       30 on host jst101 reporting.
  Task       31 on host jst101 reporting.
  Task       32 on host jst101 reporting.
  Task       33 on host jst101 reporting.
  Task       34 on host jst101 reporting.
  Task       35 on host jst101 reporting.

  Performing system and environment tests:
  *** Environment variable OMP_NUM_THREADS is not set
  *** For performance reasons you might want to set it to 1
  | Checking for ScaLAPACK...
  | No ScaLAPACK compiled in.

  Obtaining array dimensions for all initial allocations:
  
  -----------------------------------------------------------------------
  Parsing control.in (first pass over file, find array dimensions only).
  The contents of control.in will be repeated verbatim below
  unless switched off by setting 'verbatim_writeout .false.' .
  in the first line of control.in .
  -----------------------------------------------------------------------
  
  #
  #  Physical model
  #
    xc                 pbe # Choice of the functional
    spin               none
    relativistic       none
  #  mbd_dev mbd@rsscs  mbd@rsscs_forces k_grid=4:4:4
  #  many_body_dispersion_dev mbd@rsscs  mbd@rsscs_forces k_grid=4:4:4
  #  many_body_dispersion
  
  #
  #  SCF convergence
  #
  # These are reasonable default settings, and often do not have to be modified
    occupation_type    gaussian 0.001
    mixer              pulay
      n_max_pulay        10
      charge_mix_param   0.2
    sc_accuracy_rho    1E-4
    sc_accuracy_eev    1E-3
    sc_accuracy_etot   1E-5
    sc_accuracy_forces 5E-3
    sc_iter_limit      800
  
    k_grid 20 20 20
  
  
    #DFPT dielectric # Asks for a polarizability calculation (periodic case)
    #DFPT polarizability # Asks for a polarizability calculation (nonperiodic case)
    #DFPT_sc_accuracy_dm 5.0e-2 # Threshold for the convergence of the density matrix
    #dfpt_pulay_steps 8 # Activate the pulay mixer for the DFPT part
  
  ################################################################################
  #
  #  FHI-aims code project
  #  Volker Blum, Fritz Haber Institute Berlin, 2009
  #
  #  Suggested "tight" defaults for Si atom (to be pasted into control.in file)
  #
  #  Revised Jan 04, 2011, following tests (SiC) done by Lydia Nemec:
  #     d and g functions of tier 2 now enabled by default.
  #
  ################################################################################
    species        Si
  #     global species definitions
      nucleus             14
      mass                28.0855
  #
      l_hartree           6
  #
      cut_pot             4.0          2.0  1.0
      basis_dep_cutoff    1e-4
  #
      radial_base         42 7.0
      radial_multiplier   2
      angular_grids       specified
        division   0.4121   50
        division   0.7665  110
        division   1.0603  194
        division   1.2846  302
        division   1.4125  434
  #      division   1.4810  590
  #      division   1.5529  770
  #      division   1.6284  974
  #      division   2.6016 1202
  #      outer_grid   974
        outer_grid  434
  ################################################################################
  #
  #  Definition of "minimal" basis
  #
  ################################################################################
  #     valence basis states
      valence      3  s   2.
      valence      3  p   2.
  #     ion occupancy
      ion_occ      3  s   1.
      ion_occ      3  p   1.
  ################################################################################
  #
  #  Suggested additional basis functions. For production calculations,
  #  uncomment them one after another (the most important basis functions are
  #  Constructed for dimers: 1.75 A, 2.0 A, 2.25 A, 2.75 A, 3.75 A
  #
  ################################################################################
  #  "First tier" - improvements: -571.96 meV to -37.03 meV
       hydro 3 d 4.2
       hydro 2 p 1.4
       hydro 4 f 6.2
       ionic 3 s auto
  #  "Second tier" - improvements: -16.76 meV to -3.03 meV
       hydro 3 d 9
       hydro 5 g 9.4
  #     hydro 4 p 4
  #     hydro 1 s 0.65
  #  "Third tier" - improvements: -3.89 meV to -0.60 meV
  #     ionic 3 d auto
  #     hydro 3 s 2.6
  #     hydro 4 f 8.4
  #     hydro 3 d 3.4
  #     hydro 3 p 7.8
  #  "Fourth tier" - improvements: -0.33 meV to -0.11 meV
  #     hydro 2 p 1.6
  #     hydro 5 g 10.8
  #     hydro 5 f 11.2
  #     hydro 3 d 1
  #     hydro 4 s 4.5
  #  Further basis functions that fell out of the optimization - noise
  #  level... < -0.08 meV
  #     hydro 4 d 6.6
  #     hydro 5 g 16.4
  #     hydro 4 d 9
  ################################################################################
  #
  # For methods that use the localized form of the "resolution of identity" for
  # the two-electron Coulomb operator (RI_method LVL), particularly Hartree-Fock and
  # hybrid density functional calculations, the highest accuracy can be obtained by
  # uncommenting the line beginning with "for_aux"  below, thus adding an extra g radial
  # function to the construction of the product basis set for the expansion.
  # See Ref. New J. Phys. 17, 093020 (2015) for more information, particularly Figs. 1 and 6.
  #
  ################################################################################
  #
  # for_aux hydro 5 g 6.0
  
  # output the final states
    output postscf_eigenvalues
    output_level full
  # output DOS
  #  output dos -20. 30. 667 0.15
  
  -----------------------------------------------------------------------
  Completed first pass over input file control.in .
  -----------------------------------------------------------------------
  
  
  -----------------------------------------------------------------------
  Parsing geometry.in (first pass over file, find array dimensions only).
  The contents of geometry.in will be repeated verbatim below
  unless switched off by setting 'verbatim_writeout .false.' .
  in the first line of geometry.in .
  -----------------------------------------------------------------------
  
  #=======================================================
  # FHI-aims file: ./Si_Bulks/140/geometry.in
  # Created using the Atomic Simulation Environment (ASE)
  # Fri Jan 12 18:23:01 2024
  #=======================================================
  lattice_vector 5.4112169999999997 5.4112140000000002 -0.0003640000000000
  lattice_vector -0.0005160000000000 5.4113660000000001 5.4113280000000001
  lattice_vector 5.4113730000000002 -0.0005200000000000 5.4113319999999998
  atom -0.0115701600000000 -0.0118624100000000 0.0298398700000000 Si
  atom 1.3584844899999999 1.3417816300000001 1.3788814899999999 Si
  atom 2.7121442299999998 -0.0460702900000000 2.7385693400000002 Si
  atom 4.1077732400000002 1.3348961699999999 4.0556975000000000 Si
  atom 0.0644552700000000 2.7292658599999999 2.7664972600000000 Si
  atom 1.3991544899999999 4.0871748800000001 4.1602227799999998 Si
  atom 2.7658921400000001 2.7051381900000000 5.4011164799999998 Si
  atom 4.0824580700000004 4.0689427399999998 6.7589099499999996 Si
  atom 2.6474058100000000 2.6718065800000002 -0.0566047500000000 Si
  atom 3.9971681600000002 4.0139202000000003 1.2828974500000001 Si
  atom 5.3610114800000002 2.7108600699999998 2.6762633199999999 Si
  atom 6.6345247199999999 4.0609931000000001 4.0107945999999997 Si
  atom 2.6901771700000001 5.4122441099999996 2.6837281900000001 Si
  atom 4.1288889600000003 6.7704631600000003 4.0008556999999998 Si
  atom 5.3998531200000004 5.4662229000000000 5.4166716499999996 Si
  atom 6.7728463999999997 6.7948315199999998 6.8074638500000004 Si
  
  -----------------------------------------------------------------------
  Completed first pass over input file geometry.in .
  -----------------------------------------------------------------------
  

  Basic array size parameters:
  | Number of species                 :        1
  | Number of atoms                   :       16
  | Number of lattice vectors         :        3
  | Max. basis fn. angular momentum   :        4
  | Max. atomic/ionic basis occupied n:        3
  | Max. number of basis fn. types    :        3
  | Max. radial fns per species/type  :        5
  | Max. logarithmic grid size        :     1346
  | Max. radial integration grid size :       85
  | Max. angular integration grid size:      434
  | Max. angular grid division number :        8
  | Radial grid for Hartree potential :     1346
  | Number of spin channels           :        1

------------------------------------------------------------
          Reading file control.in.
------------------------------------------------------------
  XC: Using PBE gradient-corrected functionals.
  Spin treatment: No spin polarisation.
  Non-relativistic treatment of kinetic energy.
  Occupation type: Gaussian broadening, width =   0.100000E-02 eV.
  Using pulay charge density mixing.
  Pulay mixing - number of memorized iterations:   10
  Charge density mixing - mixing parameter:     0.2000
  Convergence accuracy of self-consistent charge density:  0.1000E-03
  Convergence accuracy of sum of eigenvalues:  0.1000E-02
  Convergence accuracy of total energy:  0.1000E-04
  Convergence accuracy of forces:  0.5000E-02
  Maximum number of s.-c. iterations  :   800
  Found k-point grid:        20        20        20
 
  Reading configuration options for species Si                  .
  | Found nuclear charge :  14.0000
  | Found atomic mass :    28.0855000000000      amu
  | Found l_max for Hartree potential  :   6
  | Found cutoff potl. onset [A], width [A], scale factor :    4.00000    2.00000    1.00000
  | Threshold for basis-dependent cutoff potential is   0.100000E-03
  | Found data for basic radial integration grid :    42 points, outermost radius =    7.000 A
  | Found multiplier for basic radial grid :   2
  | Found angular grid specification: user-specified.
  | Specified grid contains     6 separate shells.
  | Check grid settings after all constraints further below.
  | Found free-atom valence shell :  3 s   2.000
  | Found free-atom valence shell :  3 p   2.000
  | Found free-ion valence shell :  3 s   1.000
  | Found free-ion valence shell :  3 p   1.000
  | Found hydrogenic basis function :  3 d   4.200
  | Found hydrogenic basis function :  2 p   1.400
  | Found hydrogenic basis function :  4 f   6.200
  | Found ionic basis function :  3 s , default cutoff radius.
  | Found hydrogenic basis function :  3 d   9.000
  | Found hydrogenic basis function :  5 g   9.400
  Species Si                  : Missing cutoff potential type.
  Defaulting to exp(1/x)/(1-x)^2 type cutoff potential.
  Species Si: No 'logarithmic' tag. Using default grid for free atom:
  | Default logarithmic grid data [bohr] : 0.1000E-03 0.1000E+03 0.1012E+01
  | Will include ionic basis functions of  2.0-fold positive Si                   ion.
  Species Si: On-site basis accuracy parameter (for Gram-Schmidt orthonormalisation) not specified.
  Using default value basis_acc =  0.1000000E-03.
  Species Si                  : Using default innermost maximum threshold i_radial=  2 for radial functions.
  Species Si                  : Default cutoff onset for free atom density etc. : 0.40000000E+01 AA.
  Species Si                  : Basic radial grid will be enhanced according to radial_multiplier =   2, to contain    85 grid points.
  Found postscf_eigenvalues request to write the Kohn-Sham eigenvalues
  | across the Brillouin zone on a potentially dense k-space grid.
  | Currently, "output postscf_eigenvalues" is only supported when there are
  | more k-points in the s.c.f. "k_grid" than there are CPUs (serial eigenvalue solution).
  Requested output level: full
 
  Finished reading input file 'control.in'.
 
------------------------------------------------------------


------------------------------------------------------------
          Reading geometry description geometry.in.
------------------------------------------------------------
  | The smallest distance between any two atoms is         2.28370544 AA.
  | The first atom of this pair is atom number                      5 .
  | The second atom of this pair is atom number                    14 .
  | Wigner-Seitz cell of the first atom image           0     0     0 .
  | (The Wigner-Seitz cell of the second atom is 0 0 0  by definition.)

  Symmetry information by spglib:
  | Precision set to  0.1E-04
  | Number of Operations  : 1
  | Space group           : 1
  | International         : P1
  | Schoenflies           : C1^1
  Input structure read successfully.
  The structure contains       16 atoms,  and a total of        224.000 electrons.

  Input geometry:
  | Unit cell:
  |        5.41121700        5.41121400       -0.00036400
  |       -0.00051600        5.41136600        5.41132800
  |        5.41137300       -0.00052000        5.41133200
  | Atomic structure:
  |       Atom                x [A]            y [A]            z [A]
  |    1: Species Si           -0.01157016       -0.01186241        0.02983987
  |    2: Species Si            1.35848449        1.34178163        1.37888149
  |    3: Species Si            2.71214423       -0.04607029        2.73856934
  |    4: Species Si            4.10777324        1.33489617        4.05569750
  |    5: Species Si            0.06445527        2.72926586        2.76649726
  |    6: Species Si            1.39915449        4.08717488        4.16022278
  |    7: Species Si            2.76589214        2.70513819        5.40111648
  |    8: Species Si            4.08245807        4.06894274        6.75890995
  |    9: Species Si            2.64740581        2.67180658       -0.05660475
  |   10: Species Si            3.99716816        4.01392020        1.28289745
  |   11: Species Si            5.36101148        2.71086007        2.67626332
  |   12: Species Si            6.63452472        4.06099310        4.01079460
  |   13: Species Si            2.69017717        5.41224411        2.68372819
  |   14: Species Si            4.12888896        6.77046316        4.00085570
  |   15: Species Si            5.39985312        5.46622290        5.41667165
  |   16: Species Si            6.77284640        6.79483152        6.80746385

  Lattice parameters for 3D lattice (in Angstroms) :     7.652614    7.652800    7.652808
  Angle(s) between unit vectors (in degrees)       :    60.006575   60.005269   60.005273


  Quantities derived from the lattice vectors (in Angstrom^-1):
  | Reciprocal lattice vector 1:  0.580551  0.580551 -0.580500
  | Reciprocal lattice vector 2: -0.580479  0.580518  0.580539
  | Reciprocal lattice vector 3:  0.580518 -0.580479  0.580538
  | Unit cell volume                               :   0.316951E+03  Angstrom^3

  Fractional coordinates:
                         L1                L2                L3
       atom_frac        -0.00492200        0.00273000        0.00278400  Si
       atom_frac         0.12210400        0.12586800        0.12895400  Si
       atom_frac        -0.00667600       -0.00178900        0.50786900  Si
       atom_frac         0.12818600        0.11856200        0.63092900  Si
       atom_frac         0.00253800        0.50182100        0.00942100  Si
       atom_frac         0.12256300        0.63274800        0.13605900  Si
       atom_frac         0.00650400        0.49344400        0.50466900  Si
       atom_frac         0.12871800        0.62327100        0.62576700  Si
       atom_frac         0.49671200       -0.00295900       -0.00746800  Si
       atom_frac         0.62167900        0.12010700        0.11701100  Si
       atom_frac         0.49856300        0.00245500        0.49214500  Si
       atom_frac         0.61768500        0.13284700        0.60837900  Si
       atom_frac         0.50069600        0.49948000       -0.00350000  Si
       atom_frac         0.63743700        0.61374900        0.12564200  Si
       atom_frac         0.50355600        0.50664300        0.49437800  Si
       atom_frac         0.62468300        0.63105400        0.62699000  Si

 
  Finished reading input file 'geometry.in'.
 

 
  Consistency checks for stacksize environment parameter are next.
 
  | Maximum stacksize for task 0: unlimited
  | Maximum stacksize for task 1: unlimited
  | Maximum stacksize for task 2: unlimited
  | Maximum stacksize for task 3: unlimited
  | Maximum stacksize for task 4: unlimited
  | Maximum stacksize for task 5: unlimited
  | Maximum stacksize for task 6: unlimited
  | Maximum stacksize for task 7: unlimited
  | Maximum stacksize for task 8: unlimited
  | Maximum stacksize for task 9: unlimited
  | Maximum stacksize for task 10: unlimited
  | Maximum stacksize for task 11: unlimited
  | Maximum stacksize for task 12: unlimited
  | Maximum stacksize for task 13: unlimited
  | Maximum stacksize for task 14: unlimited
  | Maximum stacksize for task 15: unlimited
  | Maximum stacksize for task 16: unlimited
  | Maximum stacksize for task 17: unlimited
  | Maximum stacksize for task 18: unlimited
  | Maximum stacksize for task 19: unlimited
  | Maximum stacksize for task 20: unlimited
  | Maximum stacksize for task 21: unlimited
  | Maximum stacksize for task 22: unlimited
  | Maximum stacksize for task 23: unlimited
  | Maximum stacksize for task 24: unlimited
  | Maximum stacksize for task 25: unlimited
  | Maximum stacksize for task 26: unlimited
  | Maximum stacksize for task 27: unlimited
  | Maximum stacksize for task 28: unlimited
  | Maximum stacksize for task 29: unlimited
  | Maximum stacksize for task 30: unlimited
  | Maximum stacksize for task 31: unlimited
  | Maximum stacksize for task 32: unlimited
  | Maximum stacksize for task 33: unlimited
  | Maximum stacksize for task 34: unlimited
  | Maximum stacksize for task 35: unlimited
  | Current stacksize for task 0: unlimited
  | Current stacksize for task 1: unlimited
  | Current stacksize for task 2: unlimited
  | Current stacksize for task 3: unlimited
  | Current stacksize for task 4: unlimited
  | Current stacksize for task 5: unlimited
  | Current stacksize for task 6: unlimited
  | Current stacksize for task 7: unlimited
  | Current stacksize for task 8: unlimited
  | Current stacksize for task 9: unlimited
  | Current stacksize for task 10: unlimited
  | Current stacksize for task 11: unlimited
  | Current stacksize for task 12: unlimited
  | Current stacksize for task 13: unlimited
  | Current stacksize for task 14: unlimited
  | Current stacksize for task 15: unlimited
  | Current stacksize for task 16: unlimited
  | Current stacksize for task 17: unlimited
  | Current stacksize for task 18: unlimited
  | Current stacksize for task 19: unlimited
  | Current stacksize for task 20: unlimited
  | Current stacksize for task 21: unlimited
  | Current stacksize for task 22: unlimited
  | Current stacksize for task 23: unlimited
  | Current stacksize for task 24: unlimited
  | Current stacksize for task 25: unlimited
  | Current stacksize for task 26: unlimited
  | Current stacksize for task 27: unlimited
  | Current stacksize for task 28: unlimited
  | Current stacksize for task 29: unlimited
  | Current stacksize for task 30: unlimited
  | Current stacksize for task 31: unlimited
  | Current stacksize for task 32: unlimited
  | Current stacksize for task 33: unlimited
  | Current stacksize for task 34: unlimited
  | Current stacksize for task 35: unlimited
 
  Consistency checks for the contents of control.in are next.
 
  MPI_IN_PLACE appears to work with this MPI implementation.
  | Keeping use_mpi_in_place .true. (see manual).
  Target number of points in a grid batch is not set. Defaulting to  100
  Method for grid partitioning is not set. Defaulting to parallel hash+maxmin partitioning.
  Batch size limit is not set. Defaulting to    200
  By default, will store active basis functions for each batch.
  If in need of memory, prune_basis_once .false. can be used to disable this option.
  communication_type for Hartree potential was not specified.
  Defaulting to calc_hartree .
  Pulay mixer: Number of initial linear mixing iterations not set.
  Defaulting to    0 iterations.
  Work space size for distributed Hartree potential not set.
  Defaulting to   0.200000E+03 MB.
  Algorithm-dependent basis array size parameters:
  | n_max_pulay                         :       10
  Presetting      1001 iterations before the initial mixing cycle
  is restarted anyway using the sc_init_iter criterion / keyword.
  Presetting a factor      1.000 between actual scf density residual
  and density convergence criterion sc_accuracy_rho below which sc_init_iter
  takes no effect.
  Geometry relaxation not requested: no relaxation will be performed.
  Forces evaluation will include force correction term due to incomplete self-consistency (default).
  Handling of forces: Unphysical translation and rotation will be removed from forces.
  No accuracy limit for integral partition fn. given. Defaulting to  0.1000E-14.
  No threshold value for u(r) in integrations given. Defaulting to  0.1000E-05.
  No accuracy for occupation numbers given. Defaulting to  0.1000E-12.
  No threshold value for occupation numbers given. Defaulting to  0.0000E+00.
  No accuracy for fermi level given. Defaulting to  0.1000E-19.
  Maximum # of iterations to find E_F not set. Defaulting to  200.
  Preferred method for the eigenvalue solver ('KS_method') not specified in 'control.in'.
  Defaulting to serial version, LAPACK (via ELSI), since more k-points than CPUs available.
  Will not use alltoall communication since running on < 1024 CPUs.
  Threshold for basis singularities not set.
  Default threshold for basis singularities:  0.1000E-04
  partition_type (choice of integration weights) for integrals was not specified.
  | Using a version of the partition function of Stratmann and coworkers ('stratmann_sparse').
  | At each grid point, the set of atoms used to build the partition table is smoothly restricted to
  | only those atoms whose free-atom density would be non-zero at that grid point.
  Partitioning for Hartree potential was not defined. Using partition_type for integrals.
  | Adjusted default value of keyword multip_moments_threshold to:       0.10000000E-11
  | This value may affect high angular momentum components of the Hartree potential in periodic systems.
  Angular momentum expansion for Kerker preconditioner not set explicitly.
  | Using default value of   0
  No explicit requirement for turning off preconditioner.
  | By default, it will be turned off when the charge convergence reaches
  | sc_accuracy_rho  =   0.100000E-03
  | sc_accuracy_eev  =   0.100000E-02
  | sc_accuracy_etot =   0.100000E-04
  No special mixing parameter while Kerker preconditioner is on.
  Using default: charge_mix_param =     0.2000.
  No q(lm)/r^(l+1) cutoff set for long-range Hartree potential.
  | Using default value of  0.100000E-09 .
  | Verify using the multipole_threshold keyword.
  Defaulting to new monopole extrapolation.
  Density update method: automatic selection selected.
  Using density matrix based charge density update.
  Using density matrix based charge density update.
  Using packed matrix style: index .
  Defaulting to use time-reversal symmetry for k-point grid.
  Charge integration errors on the 3D integration grid will be compensated
  by explicit normalization and distribution of residual charges.
  Use the "compensate_multipole_errors" flag to change this behaviour.
 * Warning. Found "output postscf_eigenvalues" request but no dos_kgrid_factors.
 * Switching "output_dos_kgrid_factors on with minimal values (1). 
 * However, additional restrictions currently apply along this code path and may
 * lead to errors below. In that case, please work with us to identify them.
  Set 'collect_eigenvectors' to be '.true.' for all serial calculations. This is mandatory.
  Set 'collect_eigenvectors' to be '.true.' for KS_method lapack_fast and serial.
 
  Consistency checks for the contents of geometry.in are next.
 

  Range separation radius for Ewald summation (hartree_convergence_parameter):      3.87360905 bohr.
 * Attention. You are trying to treat an element beyond Ne (Z=10) without
 * accounting for relativity. This will lead to slight deviations from the true
 * physics of the system. Check your results if in doubt.
  Number of empty states per atom not set in control.in - providing a guess from actual geometry.
  | Total number of empty states used during s.c.f. cycle:       48
  If you use a very high smearing, use empty_states (per atom!) in control.in to increase this value.

  Structure-dependent array size parameters: 
  | Maximum number of distinct radial functions  :       11
  | Maximum number of basis functions            :      624
  | Number of Kohn-Sham states (occupied + empty):      160
------------------------------------------------------------

------------------------------------------------------------
          Preparing all fixed parts of the calculation.
------------------------------------------------------------
  Determining machine precision:
    2.225073858507201E-308
  Setting up grids for atomic and cluster calculations.

  Creating wave function, potential, and density for free atoms.
  Runtime choices for atomic solver:
  | atomic solver xc        : PBE
  | compute density gradient: 1
  | compute kinetic density : F

  Species: Si

  List of occupied orbitals and eigenvalues:
    n    l              occ      energy [Ha]    energy [eV]
    1    0           2.0000       -65.453482     -1781.0799
    2    0           2.0000        -5.098546      -138.7385
    3    0           2.0000        -0.392868       -10.6905
    2    1           6.0000        -3.509027       -95.4855
    3    1           2.0000        -0.147363        -4.0100


  Adding cutoff potential to free-atom effective potential.
  Creating fixed part of basis set: Ionic, confined, hydrogenic.
 
  Si                   ion:

  List of free ionic orbitals and eigenvalues:
    n    l      energy [Ha]    energy [eV]
    1    0       -66.316121     -1804.5535
    2    0        -5.938141      -161.5850
    3    0        -1.071307       -29.1517
    2    1        -4.349847      -118.3654
    3    1        -0.776664       -21.1341


  List of ionic basis orbitals and eigenvalues:
    n    l      energy [Ha]    energy [eV]    outer radius [A]
    3    0        -1.071299       -29.1515       4.534782

 
  Si                   hydrogenic:
 
  List of hydrogenic basis orbitals: 
    n    l      effective z      eigenvalue [eV]  inner max. [A]     outer max. [A]     outer radius [A]   
    3    2         4.200000       -26.6668           1.139231           1.139231           5.315897
    2    1         1.400000        -6.6027           1.490786           1.490786           5.447472
    4    3         6.200000       -32.6870           1.368518           1.368518           5.381283
    3    2         9.000000      -122.4512           0.527387           0.527387           3.181181
    5    4         9.400000       -48.0877           1.402391           1.402391           5.251306
 
  Creating atomic-like basis functions for current effective potential.

  Species Si                  :

  List of atomic basis orbitals and eigenvalues:
    n    l      energy [Ha]    energy [eV]    outer radius [A]
    1    0       -65.453482     -1781.0799       0.789468
    2    0        -5.098546      -138.7385       2.815114
    3    0        -0.392868       -10.6905       5.315897
    2    1        -3.509027       -95.4855       3.259919
    3    1        -0.147363        -4.0100       5.447472

  Assembling full basis from fixed parts.
  | Species Si :   atomic orbital   1 s accepted.
  | Species Si :   atomic orbital   2 s accepted.
  | Species Si :    ionic orbital   3 s accepted.
  | Species Si :   atomic orbital   3 s accepted.
  | Species Si :   atomic orbital   2 p accepted.
  | Species Si :   atomic orbital   3 p accepted.
  | Species Si :    hydro orbital   2 p accepted.
  | Species Si :    hydro orbital   3 d accepted.
  | Species Si :    hydro orbital   3 d accepted.
  | Species Si :    hydro orbital   4 f accepted.
  | Species Si :    hydro orbital   5 g accepted.
 
  Basis size parameters after reduction:
  | Total number of radial functions:       11
  | Total number of basis functions :      624
 
  Per-task memory consumption for arrays in subroutine allocate_ext:
  |           2.856716MB.
  Testing on-site integration grid accuracy.
  |  Species  Function  <phi|h_atom|phi> (log., in eV)  <phi|h_atom|phi> (rad., in eV)
           1        1              -1781.0798698381              -1781.0798402733
           1        2               -138.7384883015               -138.7384878243
           1        3                -10.3412664797                -10.3412664987
           1        4                  5.2631644608                  5.2629927229
           1        5                -95.4854814950                -95.4854813616
           1        6                 -4.0132724088                 -4.0133902462
           1        7                  4.8268485544                  4.8250430374
           1        8                 35.9538517158                 35.9538517388
           1        9                 21.0242605596                 21.0242535068
           1       10                 19.1612753546                 19.1612665730
           1       11                 35.6745908571                 35.6745951585

  Task       0:*** pseudo_inverse, for evaluate_coeff_d: error of  3.12E-13; eps:  1.00E-15
  Preparing densities etc. for the partition functions (integrals / Hartree potential).

  Preparations completed.
  max(cpu_time)          :      0.150 s.
  Wall clock time (cpu1) :      0.160 s.
------------------------------------------------------------

  Initializing index lists of integration centers etc. from given atomic structure:
  Mapping all atomic coordinates to central unit cell.

  Initializing the k-points
  Using symmetry for reducing the k-points
  | k-points reduced from:     8000 to     4004
  | Number of k-points                             :      4004
  The eigenvectors in the calculations are COMPLEX.
  | K-points in task   0:       111
  | K-points in task   1:       112
  | K-points in task   2:       112
  | K-points in task   3:       112
  | K-points in task   4:       112
  | K-points in task   5:       112
  | K-points in task   6:       112
  | K-points in task   7:       112
  | K-points in task   8:       112
  | K-points in task   9:       111
  | K-points in task  10:       111
  | K-points in task  11:       111
  | K-points in task  12:       111
  | K-points in task  13:       111
  | K-points in task  14:       111
  | K-points in task  15:       111
  | K-points in task  16:       111
  | K-points in task  17:       111
  | K-points in task  18:       111
  | K-points in task  19:       111
  | K-points in task  20:       111
  | K-points in task  21:       111
  | K-points in task  22:       111
  | K-points in task  23:       111
  | K-points in task  24:       111
  | K-points in task  25:       111
  | K-points in task  26:       111
  | K-points in task  27:       111
  | K-points in task  28:       111
  | K-points in task  29:       111
  | K-points in task  30:       111
  | K-points in task  31:       111
  | K-points in task  32:       111
  | K-points in task  33:       111
  | K-points in task  34:       111
  | K-points in task  35:       111
  | k-point: 1 at     0.000000    0.000000    0.000000  , weight:   0.00012500
  | k-point: 2 at     0.000000    0.000000    0.050000  , weight:   0.00025000
  | k-point: 3 at     0.000000    0.000000    0.150000  , weight:   0.00025000
  | k-point: 4 at     0.000000    0.000000    0.200000  , weight:   0.00025000
  | k-point: 5 at     0.000000    0.000000    0.250000  , weight:   0.00025000
  | k-point: 6 at     0.000000    0.000000    0.350000  , weight:   0.00025000
  | k-point: 7 at     0.000000    0.000000    0.400000  , weight:   0.00025000
  | k-point: 8 at     0.000000    0.000000    0.450000  , weight:   0.00025000
  | k-point: 9 at     0.000000    0.000000    0.500000  , weight:   0.00012500
  | k-point: 10 at     0.000000    0.000000    0.700000  , weight:   0.00025000
  | k-point: 11 at     0.000000    0.000000    0.900000  , weight:   0.00025000
  | k-point: 12 at     0.000000    0.050000    0.000000  , weight:   0.00025000
  | k-point: 13 at     0.000000    0.050000    0.050000  , weight:   0.00025000
  | k-point: 14 at     0.000000    0.050000    0.100000  , weight:   0.00025000
  | k-point: 15 at     0.000000    0.050000    0.200000  , weight:   0.00025000
  | k-point: 16 at     0.000000    0.050000    0.250000  , weight:   0.00025000
  | k-point: 17 at     0.000000    0.050000    0.300000  , weight:   0.00025000
  | k-point: 18 at     0.000000    0.050000    0.400000  , weight:   0.00025000
  | k-point: 19 at     0.000000    0.050000    0.450000  , weight:   0.00025000
  | k-point: 20 at     0.000000    0.050000    0.500000  , weight:   0.00025000
  | k-point: 21 at     0.000000    0.050000    0.600000  , weight:   0.00025000
  | k-point: 22 at     0.000000    0.050000    0.650000  , weight:   0.00025000
  | k-point: 23 at     0.000000    0.050000    0.700000  , weight:   0.00025000
  | k-point: 24 at     0.000000    0.050000    0.800000  , weight:   0.00025000
  | k-point: 25 at     0.000000    0.050000    0.850000  , weight:   0.00025000
  | k-point: 26 at     0.000000    0.050000    0.900000  , weight:   0.00025000
  | k-point: 27 at     0.000000    0.100000    0.000000  , weight:   0.00025000
  | k-point: 28 at     0.000000    0.100000    0.050000  , weight:   0.00025000
  | k-point: 29 at     0.000000    0.100000    0.100000  , weight:   0.00025000
  | k-point: 30 at     0.000000    0.100000    0.200000  , weight:   0.00025000
  | k-point: 31 at     0.000000    0.100000    0.250000  , weight:   0.00025000
  | k-point: 32 at     0.000000    0.100000    0.300000  , weight:   0.00025000
  | k-point: 33 at     0.000000    0.100000    0.400000  , weight:   0.00025000
  | k-point: 34 at     0.000000    0.100000    0.450000  , weight:   0.00025000
  | k-point: 35 at     0.000000    0.100000    0.500000  , weight:   0.00025000
  | k-point: 36 at     0.000000    0.100000    0.600000  , weight:   0.00025000
  | k-point: 37 at     0.000000    0.100000    0.650000  , weight:   0.00025000
  | k-point: 38 at     0.000000    0.100000    0.700000  , weight:   0.00025000
  | k-point: 39 at     0.000000    0.100000    0.800000  , weight:   0.00025000
  | k-point: 40 at     0.000000    0.100000    0.850000  , weight:   0.00025000
  | k-point: 41 at     0.000000    0.100000    0.900000  , weight:   0.00025000
  | k-point: 42 at     0.000000    0.150000    0.000000  , weight:   0.00025000
  | k-point: 43 at     0.000000    0.150000    0.050000  , weight:   0.00025000
  | k-point: 44 at     0.000000    0.150000    0.100000  , weight:   0.00025000
  | k-point: 45 at     0.000000    0.150000    0.200000  , weight:   0.00025000
  | k-point: 46 at     0.000000    0.150000    0.250000  , weight:   0.00025000
  | k-point: 47 at     0.000000    0.150000    0.300000  , weight:   0.00025000
  | k-point: 48 at     0.000000    0.150000    0.400000  , weight:   0.00025000
  | k-point: 49 at     0.000000    0.150000    0.450000  , weight:   0.00025000
  | k-point: 50 at     0.000000    0.150000    0.500000  , weight:   0.00025000
  | k-point: 51 at     0.000000    0.150000    0.600000  , weight:   0.00025000
  | k-point: 52 at     0.000000    0.150000    0.650000  , weight:   0.00025000
  | k-point: 53 at     0.000000    0.150000    0.700000  , weight:   0.00025000
  | k-point: 54 at     0.000000    0.150000    0.800000  , weight:   0.00025000
  | k-point: 55 at     0.000000    0.150000    0.850000  , weight:   0.00025000
  | k-point: 56 at     0.000000    0.150000    0.900000  , weight:   0.00025000
  | k-point: 57 at     0.000000    0.200000    0.000000  , weight:   0.00025000
  | k-point: 58 at     0.000000    0.200000    0.050000  , weight:   0.00025000
  | k-point: 59 at     0.000000    0.200000    0.100000  , weight:   0.00025000
  | k-point: 60 at     0.000000    0.200000    0.200000  , weight:   0.00025000
  | k-point: 61 at     0.000000    0.200000    0.250000  , weight:   0.00025000
  | k-point: 62 at     0.000000    0.200000    0.300000  , weight:   0.00025000
  | k-point: 63 at     0.000000    0.200000    0.400000  , weight:   0.00025000
  | k-point: 64 at     0.000000    0.200000    0.450000  , weight:   0.00025000
  | k-point: 65 at     0.000000    0.200000    0.500000  , weight:   0.00025000
  | k-point: 66 at     0.000000    0.200000    0.600000  , weight:   0.00025000
  | k-point: 67 at     0.000000    0.200000    0.650000  , weight:   0.00025000
  | k-point: 68 at     0.000000    0.200000    0.700000  , weight:   0.00025000
  | k-point: 69 at     0.000000    0.200000    0.800000  , weight:   0.00025000
  | k-point: 70 at     0.000000    0.200000    0.850000  , weight:   0.00025000
  | k-point: 71 at     0.000000    0.200000    0.900000  , weight:   0.00025000
  | k-point: 72 at     0.000000    0.250000    0.000000  , weight:   0.00025000
  | k-point: 73 at     0.000000    0.250000    0.050000  , weight:   0.00025000
  | k-point: 74 at     0.000000    0.250000    0.100000  , weight:   0.00025000
  | k-point: 75 at     0.000000    0.250000    0.200000  , weight:   0.00025000
  | k-point: 76 at     0.000000    0.250000    0.250000  , weight:   0.00025000
  | k-point: 77 at     0.000000    0.250000    0.300000  , weight:   0.00025000
  | k-point: 78 at     0.000000    0.250000    0.400000  , weight:   0.00025000
  | k-point: 79 at     0.000000    0.250000    0.450000  , weight:   0.00025000
  | k-point: 80 at     0.000000    0.250000    0.500000  , weight:   0.00025000
  | k-point: 81 at     0.000000    0.250000    0.600000  , weight:   0.00025000
  | k-point: 82 at     0.000000    0.250000    0.650000  , weight:   0.00025000
  | k-point: 83 at     0.000000    0.250000    0.700000  , weight:   0.00025000
  | k-point: 84 at     0.000000    0.250000    0.800000  , weight:   0.00025000
  | k-point: 85 at     0.000000    0.250000    0.850000  , weight:   0.00025000
  | k-point: 86 at     0.000000    0.250000    0.900000  , weight:   0.00025000
  | k-point: 87 at     0.000000    0.300000    0.000000  , weight:   0.00025000
  | k-point: 88 at     0.000000    0.300000    0.050000  , weight:   0.00025000
  | k-point: 89 at     0.000000    0.300000    0.100000  , weight:   0.00025000
  | k-point: 90 at     0.000000    0.300000    0.200000  , weight:   0.00025000
  | k-point: 91 at     0.000000    0.300000    0.250000  , weight:   0.00025000
  | k-point: 92 at     0.000000    0.300000    0.300000  , weight:   0.00025000
  | k-point: 93 at     0.000000    0.300000    0.400000  , weight:   0.00025000
  | k-point: 94 at     0.000000    0.300000    0.450000  , weight:   0.00025000
  | k-point: 95 at     0.000000    0.300000    0.500000  , weight:   0.00025000
  | k-point: 96 at     0.000000    0.300000    0.600000  , weight:   0.00025000
  | k-point: 97 at     0.000000    0.300000    0.650000  , weight:   0.00025000
  | k-point: 98 at     0.000000    0.300000    0.700000  , weight:   0.00025000
  | k-point: 99 at     0.000000    0.300000    0.800000  , weight:   0.00025000
  | k-point: 100 at     0.000000    0.300000    0.850000  , weight:   0.00025000
  | k-point: 101 at     0.000000    0.300000    0.900000  , weight:   0.00025000
  | k-point: 102 at     0.000000    0.350000    0.000000  , weight:   0.00025000
  | k-point: 103 at     0.000000    0.350000    0.050000  , weight:   0.00025000
  | k-point: 104 at     0.000000    0.350000    0.100000  , weight:   0.00025000
  | k-point: 105 at     0.000000    0.350000    0.200000  , weight:   0.00025000
  | k-point: 106 at     0.000000    0.350000    0.250000  , weight:   0.00025000
  | k-point: 107 at     0.000000    0.350000    0.300000  , weight:   0.00025000
  | k-point: 108 at     0.000000    0.350000    0.400000  , weight:   0.00025000
  | k-point: 109 at     0.000000    0.350000    0.450000  , weight:   0.00025000
  | k-point: 110 at     0.000000    0.350000    0.500000  , weight:   0.00025000
  | k-point: 111 at     0.000000    0.350000    0.600000  , weight:   0.00025000
  | k-point: 112 at     0.000000    0.350000    0.650000  , weight:   0.00025000
  | k-point: 113 at     0.000000    0.350000    0.700000  , weight:   0.00025000
  | k-point: 114 at     0.000000    0.350000    0.800000  , weight:   0.00025000
  | k-point: 115 at     0.000000    0.350000    0.850000  , weight:   0.00025000
  | k-point: 116 at     0.000000    0.350000    0.900000  , weight:   0.00025000
  | k-point: 117 at     0.000000    0.400000    0.000000  , weight:   0.00025000
  | k-point: 118 at     0.000000    0.400000    0.050000  , weight:   0.00025000
  | k-point: 119 at     0.000000    0.400000    0.100000  , weight:   0.00025000
  | k-point: 120 at     0.000000    0.400000    0.200000  , weight:   0.00025000
  | k-point: 121 at     0.000000    0.400000    0.250000  , weight:   0.00025000
  | k-point: 122 at     0.000000    0.400000    0.300000  , weight:   0.00025000
  | k-point: 123 at     0.000000    0.400000    0.400000  , weight:   0.00025000
  | k-point: 124 at     0.000000    0.400000    0.450000  , weight:   0.00025000
  | k-point: 125 at     0.000000    0.400000    0.500000  , weight:   0.00025000
  | k-point: 126 at     0.000000    0.400000    0.600000  , weight:   0.00025000
  | k-point: 127 at     0.000000    0.400000    0.650000  , weight:   0.00025000
  | k-point: 128 at     0.000000    0.400000    0.700000  , weight:   0.00025000
  | k-point: 129 at     0.000000    0.400000    0.800000  , weight:   0.00025000
  | k-point: 130 at     0.000000    0.400000    0.850000  , weight:   0.00025000
  | k-point: 131 at     0.000000    0.400000    0.900000  , weight:   0.00025000
  | k-point: 132 at     0.000000    0.450000    0.000000  , weight:   0.00025000
  | k-point: 133 at     0.000000    0.450000    0.050000  , weight:   0.00025000
  | k-point: 134 at     0.000000    0.450000    0.100000  , weight:   0.00025000
  | k-point: 135 at     0.000000    0.450000    0.200000  , weight:   0.00025000
  | k-point: 136 at     0.000000    0.450000    0.250000  , weight:   0.00025000
  | k-point: 137 at     0.000000    0.450000    0.300000  , weight:   0.00025000
  | k-point: 138 at     0.000000    0.450000    0.400000  , weight:   0.00025000
  | k-point: 139 at     0.000000    0.450000    0.450000  , weight:   0.00025000
  | k-point: 140 at     0.000000    0.450000    0.500000  , weight:   0.00025000
  | k-point: 141 at     0.000000    0.450000    0.600000  , weight:   0.00025000
  | k-point: 142 at     0.000000    0.450000    0.650000  , weight:   0.00025000
  | k-point: 143 at     0.000000    0.450000    0.700000  , weight:   0.00025000
  | k-point: 144 at     0.000000    0.450000    0.800000  , weight:   0.00025000
  | k-point: 145 at     0.000000    0.450000    0.850000  , weight:   0.00025000
  | k-point: 146 at     0.000000    0.450000    0.900000  , weight:   0.00025000
  | k-point: 147 at     0.000000    0.500000    0.000000  , weight:   0.00012500
  | k-point: 148 at     0.000000    0.500000    0.050000  , weight:   0.00025000
  | k-point: 149 at     0.000000    0.500000    0.100000  , weight:   0.00025000
  | k-point: 150 at     0.000000    0.500000    0.200000  , weight:   0.00025000
  | k-point: 151 at     0.000000    0.500000    0.250000  , weight:   0.00025000
  | k-point: 152 at     0.000000    0.500000    0.300000  , weight:   0.00025000
  | k-point: 153 at     0.000000    0.500000    0.400000  , weight:   0.00025000
  | k-point: 154 at     0.000000    0.500000    0.450000  , weight:   0.00025000
  | k-point: 155 at     0.000000    0.500000    0.500000  , weight:   0.00012500
  | k-point: 156 at     0.000000    0.500000    0.650000  , weight:   0.00025000
  | k-point: 157 at     0.000000    0.500000    0.850000  , weight:   0.00025000
  | k-point: 158 at     0.000000    0.550000    0.050000  , weight:   0.00025000
  | k-point: 159 at     0.000000    0.550000    0.250000  , weight:   0.00025000
  | k-point: 160 at     0.000000    0.550000    0.450000  , weight:   0.00025000
  | k-point: 161 at     0.000000    0.550000    0.650000  , weight:   0.00025000
  | k-point: 162 at     0.000000    0.550000    0.850000  , weight:   0.00025000
  | k-point: 163 at     0.000000    0.600000    0.050000  , weight:   0.00025000
  | k-point: 164 at     0.000000    0.600000    0.250000  , weight:   0.00025000
  | k-point: 165 at     0.000000    0.600000    0.450000  , weight:   0.00025000
  | k-point: 166 at     0.000000    0.600000    0.650000  , weight:   0.00025000
  | k-point: 167 at     0.000000    0.600000    0.850000  , weight:   0.00025000
  | k-point: 168 at     0.000000    0.650000    0.050000  , weight:   0.00025000
  | k-point: 169 at     0.000000    0.650000    0.250000  , weight:   0.00025000
  | k-point: 170 at     0.000000    0.650000    0.450000  , weight:   0.00025000
  | k-point: 171 at     0.000000    0.650000    0.650000  , weight:   0.00025000
  | k-point: 172 at     0.000000    0.650000    0.850000  , weight:   0.00025000
  | k-point: 173 at     0.000000    0.700000    0.050000  , weight:   0.00025000
  | k-point: 174 at     0.000000    0.700000    0.250000  , weight:   0.00025000
  | k-point: 175 at     0.000000    0.700000    0.450000  , weight:   0.00025000
  | k-point: 176 at     0.000000    0.700000    0.650000  , weight:   0.00025000
  | k-point: 177 at     0.000000    0.700000    0.850000  , weight:   0.00025000
  | k-point: 178 at     0.000000    0.750000    0.050000  , weight:   0.00025000
  | k-point: 179 at     0.000000    0.750000    0.250000  , weight:   0.00025000
  | k-point: 180 at     0.000000    0.750000    0.450000  , weight:   0.00025000
  | k-point: 181 at     0.000000    0.750000    0.650000  , weight:   0.00025000
  | k-point: 182 at     0.000000    0.750000    0.850000  , weight:   0.00025000
  | k-point: 183 at     0.000000    0.800000    0.050000  , weight:   0.00025000
  | k-point: 184 at     0.000000    0.800000    0.250000  , weight:   0.00025000
  | k-point: 185 at     0.000000    0.800000    0.450000  , weight:   0.00025000
  | k-point: 186 at     0.000000    0.800000    0.650000  , weight:   0.00025000
  | k-point: 187 at     0.000000    0.800000    0.850000  , weight:   0.00025000
  | k-point: 188 at     0.000000    0.850000    0.050000  , weight:   0.00025000
  | k-point: 189 at     0.000000    0.850000    0.250000  , weight:   0.00025000
  | k-point: 190 at     0.000000    0.850000    0.450000  , weight:   0.00025000
  | k-point: 191 at     0.000000    0.850000    0.650000  , weight:   0.00025000
  | k-point: 192 at     0.000000    0.850000    0.850000  , weight:   0.00025000
  | k-point: 193 at     0.000000    0.900000    0.050000  , weight:   0.00025000
  | k-point: 194 at     0.000000    0.900000    0.250000  , weight:   0.00025000
  | k-point: 195 at     0.000000    0.900000    0.450000  , weight:   0.00025000
  | k-point: 196 at     0.000000    0.900000    0.650000  , weight:   0.00025000
  | k-point: 197 at     0.000000    0.900000    0.850000  , weight:   0.00025000
  | k-point: 198 at     0.000000    0.950000    0.050000  , weight:   0.00025000
  | k-point: 199 at     0.000000    0.950000    0.250000  , weight:   0.00025000
  | k-point: 200 at     0.000000    0.950000    0.450000  , weight:   0.00025000
  | k-point: 201 at     0.000000    0.950000    0.650000  , weight:   0.00025000
  | k-point: 202 at     0.000000    0.950000    0.850000  , weight:   0.00025000
  | k-point: 203 at     0.050000    0.000000    0.000000  , weight:   0.00025000
  | k-point: 204 at     0.050000    0.000000    0.100000  , weight:   0.00025000
  | k-point: 205 at     0.050000    0.000000    0.150000  , weight:   0.00025000
  | k-point: 206 at     0.050000    0.000000    0.200000  , weight:   0.00025000
  | k-point: 207 at     0.050000    0.000000    0.300000  , weight:   0.00025000
  | k-point: 208 at     0.050000    0.000000    0.350000  , weight:   0.00025000
  | k-point: 209 at     0.050000    0.000000    0.400000  , weight:   0.00025000
  | k-point: 210 at     0.050000    0.000000    0.500000  , weight:   0.00025000
  | k-point: 211 at     0.050000    0.000000    0.550000  , weight:   0.00025000
  | k-point: 212 at     0.050000    0.000000    0.600000  , weight:   0.00025000
  | k-point: 213 at     0.050000    0.000000    0.700000  , weight:   0.00025000
  | k-point: 214 at     0.050000    0.000000    0.750000  , weight:   0.00025000
  | k-point: 215 at     0.050000    0.000000    0.800000  , weight:   0.00025000
  | k-point: 216 at     0.050000    0.000000    0.900000  , weight:   0.00025000
  | k-point: 217 at     0.050000    0.000000    0.950000  , weight:   0.00025000
  | k-point: 218 at     0.050000    0.050000    0.000000  , weight:   0.00025000
  | k-point: 219 at     0.050000    0.050000    0.100000  , weight:   0.00025000
  | k-point: 220 at     0.050000    0.050000    0.150000  , weight:   0.00025000
  | k-point: 221 at     0.050000    0.050000    0.200000  , weight:   0.00025000
  | k-point: 222 at     0.050000    0.050000    0.300000  , weight:   0.00025000
  | k-point: 223 at     0.050000    0.050000    0.350000  , weight:   0.00025000
  | k-point: 224 at     0.050000    0.050000    0.400000  , weight:   0.00025000
  | k-point: 225 at     0.050000    0.050000    0.500000  , weight:   0.00025000
  | k-point: 226 at     0.050000    0.050000    0.550000  , weight:   0.00025000
  | k-point: 227 at     0.050000    0.050000    0.600000  , weight:   0.00025000
  | k-point: 228 at     0.050000    0.050000    0.700000  , weight:   0.00025000
  | k-point: 229 at     0.050000    0.050000    0.750000  , weight:   0.00025000
  | k-point: 230 at     0.050000    0.050000    0.800000  , weight:   0.00025000
  | k-point: 231 at     0.050000    0.050000    0.900000  , weight:   0.00025000
  | k-point: 232 at     0.050000    0.050000    0.950000  , weight:   0.00025000
  | k-point: 233 at     0.050000    0.100000    0.000000  , weight:   0.00025000
  | k-point: 234 at     0.050000    0.100000    0.100000  , weight:   0.00025000
  | k-point: 235 at     0.050000    0.100000    0.150000  , weight:   0.00025000
  | k-point: 236 at     0.050000    0.100000    0.200000  , weight:   0.00025000
  | k-point: 237 at     0.050000    0.100000    0.300000  , weight:   0.00025000
  | k-point: 238 at     0.050000    0.100000    0.350000  , weight:   0.00025000
  | k-point: 239 at     0.050000    0.100000    0.400000  , weight:   0.00025000
  | k-point: 240 at     0.050000    0.100000    0.500000  , weight:   0.00025000
  | k-point: 241 at     0.050000    0.100000    0.550000  , weight:   0.00025000
  | k-point: 242 at     0.050000    0.100000    0.600000  , weight:   0.00025000
  | k-point: 243 at     0.050000    0.100000    0.700000  , weight:   0.00025000
  | k-point: 244 at     0.050000    0.100000    0.750000  , weight:   0.00025000
  | k-point: 245 at     0.050000    0.100000    0.800000  , weight:   0.00025000
  | k-point: 246 at     0.050000    0.100000    0.900000  , weight:   0.00025000
  | k-point: 247 at     0.050000    0.100000    0.950000  , weight:   0.00025000
  | k-point: 248 at     0.050000    0.150000    0.000000  , weight:   0.00025000
  | k-point: 249 at     0.050000    0.150000    0.100000  , weight:   0.00025000
  | k-point: 250 at     0.050000    0.150000    0.150000  , weight:   0.00025000
  | k-point: 251 at     0.050000    0.150000    0.200000  , weight:   0.00025000
  | k-point: 252 at     0.050000    0.150000    0.300000  , weight:   0.00025000
  | k-point: 253 at     0.050000    0.150000    0.350000  , weight:   0.00025000
  | k-point: 254 at     0.050000    0.150000    0.400000  , weight:   0.00025000
  | k-point: 255 at     0.050000    0.150000    0.500000  , weight:   0.00025000
  | k-point: 256 at     0.050000    0.150000    0.550000  , weight:   0.00025000
  | k-point: 257 at     0.050000    0.150000    0.600000  , weight:   0.00025000
  | k-point: 258 at     0.050000    0.150000    0.700000  , weight:   0.00025000
  | k-point: 259 at     0.050000    0.150000    0.750000  , weight:   0.00025000
  | k-point: 260 at     0.050000    0.150000    0.800000  , weight:   0.00025000
  | k-point: 261 at     0.050000    0.150000    0.900000  , weight:   0.00025000
  | k-point: 262 at     0.050000    0.150000    0.950000  , weight:   0.00025000
  | k-point: 263 at     0.050000    0.200000    0.000000  , weight:   0.00025000
  | k-point: 264 at     0.050000    0.200000    0.100000  , weight:   0.00025000
  | k-point: 265 at     0.050000    0.200000    0.150000  , weight:   0.00025000
  | k-point: 266 at     0.050000    0.200000    0.200000  , weight:   0.00025000
  | k-point: 267 at     0.050000    0.200000    0.300000  , weight:   0.00025000
  | k-point: 268 at     0.050000    0.200000    0.350000  , weight:   0.00025000
  | k-point: 269 at     0.050000    0.200000    0.400000  , weight:   0.00025000
  | k-point: 270 at     0.050000    0.200000    0.500000  , weight:   0.00025000
  | k-point: 271 at     0.050000    0.200000    0.550000  , weight:   0.00025000
  | k-point: 272 at     0.050000    0.200000    0.600000  , weight:   0.00025000
  | k-point: 273 at     0.050000    0.200000    0.700000  , weight:   0.00025000
  | k-point: 274 at     0.050000    0.200000    0.750000  , weight:   0.00025000
  | k-point: 275 at     0.050000    0.200000    0.800000  , weight:   0.00025000
  | k-point: 276 at     0.050000    0.200000    0.900000  , weight:   0.00025000
  | k-point: 277 at     0.050000    0.200000    0.950000  , weight:   0.00025000
  | k-point: 278 at     0.050000    0.250000    0.000000  , weight:   0.00025000
  | k-point: 279 at     0.050000    0.250000    0.100000  , weight:   0.00025000
  | k-point: 280 at     0.050000    0.250000    0.150000  , weight:   0.00025000
  | k-point: 281 at     0.050000    0.250000    0.200000  , weight:   0.00025000
  | k-point: 282 at     0.050000    0.250000    0.300000  , weight:   0.00025000
  | k-point: 283 at     0.050000    0.250000    0.350000  , weight:   0.00025000
  | k-point: 284 at     0.050000    0.250000    0.400000  , weight:   0.00025000
  | k-point: 285 at     0.050000    0.250000    0.500000  , weight:   0.00025000
  | k-point: 286 at     0.050000    0.250000    0.550000  , weight:   0.00025000
  | k-point: 287 at     0.050000    0.250000    0.600000  , weight:   0.00025000
  | k-point: 288 at     0.050000    0.250000    0.700000  , weight:   0.00025000
  | k-point: 289 at     0.050000    0.250000    0.750000  , weight:   0.00025000
  | k-point: 290 at     0.050000    0.250000    0.800000  , weight:   0.00025000
  | k-point: 291 at     0.050000    0.250000    0.900000  , weight:   0.00025000
  | k-point: 292 at     0.050000    0.250000    0.950000  , weight:   0.00025000
  | k-point: 293 at     0.050000    0.300000    0.000000  , weight:   0.00025000
  | k-point: 294 at     0.050000    0.300000    0.100000  , weight:   0.00025000
  | k-point: 295 at     0.050000    0.300000    0.150000  , weight:   0.00025000
  | k-point: 296 at     0.050000    0.300000    0.200000  , weight:   0.00025000
  | k-point: 297 at     0.050000    0.300000    0.300000  , weight:   0.00025000
  | k-point: 298 at     0.050000    0.300000    0.350000  , weight:   0.00025000
  | k-point: 299 at     0.050000    0.300000    0.400000  , weight:   0.00025000
  | k-point: 300 at     0.050000    0.300000    0.500000  , weight:   0.00025000
  | k-point: 301 at     0.050000    0.300000    0.550000  , weight:   0.00025000
  | k-point: 302 at     0.050000    0.300000    0.600000  , weight:   0.00025000
  | k-point: 303 at     0.050000    0.300000    0.700000  , weight:   0.00025000
  | k-point: 304 at     0.050000    0.300000    0.750000  , weight:   0.00025000
  | k-point: 305 at     0.050000    0.300000    0.800000  , weight:   0.00025000
  | k-point: 306 at     0.050000    0.300000    0.900000  , weight:   0.00025000
  | k-point: 307 at     0.050000    0.300000    0.950000  , weight:   0.00025000
  | k-point: 308 at     0.050000    0.350000    0.000000  , weight:   0.00025000
  | k-point: 309 at     0.050000    0.350000    0.100000  , weight:   0.00025000
  | k-point: 310 at     0.050000    0.350000    0.150000  , weight:   0.00025000
  | k-point: 311 at     0.050000    0.350000    0.200000  , weight:   0.00025000
  | k-point: 312 at     0.050000    0.350000    0.300000  , weight:   0.00025000
  | k-point: 313 at     0.050000    0.350000    0.350000  , weight:   0.00025000
  | k-point: 314 at     0.050000    0.350000    0.400000  , weight:   0.00025000
  | k-point: 315 at     0.050000    0.350000    0.500000  , weight:   0.00025000
  | k-point: 316 at     0.050000    0.350000    0.550000  , weight:   0.00025000
  | k-point: 317 at     0.050000    0.350000    0.600000  , weight:   0.00025000
  | k-point: 318 at     0.050000    0.350000    0.700000  , weight:   0.00025000
  | k-point: 319 at     0.050000    0.350000    0.750000  , weight:   0.00025000
  | k-point: 320 at     0.050000    0.350000    0.800000  , weight:   0.00025000
  | k-point: 321 at     0.050000    0.350000    0.900000  , weight:   0.00025000
  | k-point: 322 at     0.050000    0.350000    0.950000  , weight:   0.00025000
  | k-point: 323 at     0.050000    0.400000    0.000000  , weight:   0.00025000
  | k-point: 324 at     0.050000    0.400000    0.100000  , weight:   0.00025000
  | k-point: 325 at     0.050000    0.400000    0.150000  , weight:   0.00025000
  | k-point: 326 at     0.050000    0.400000    0.200000  , weight:   0.00025000
  | k-point: 327 at     0.050000    0.400000    0.300000  , weight:   0.00025000
  | k-point: 328 at     0.050000    0.400000    0.350000  , weight:   0.00025000
  | k-point: 329 at     0.050000    0.400000    0.400000  , weight:   0.00025000
  | k-point: 330 at     0.050000    0.400000    0.500000  , weight:   0.00025000
  | k-point: 331 at     0.050000    0.400000    0.550000  , weight:   0.00025000
  | k-point: 332 at     0.050000    0.400000    0.600000  , weight:   0.00025000
  | k-point: 333 at     0.050000    0.400000    0.700000  , weight:   0.00025000
  | k-point: 334 at     0.050000    0.400000    0.750000  , weight:   0.00025000
  | k-point: 335 at     0.050000    0.400000    0.800000  , weight:   0.00025000
  | k-point: 336 at     0.050000    0.400000    0.900000  , weight:   0.00025000
  | k-point: 337 at     0.050000    0.400000    0.950000  , weight:   0.00025000
  | k-point: 338 at     0.050000    0.450000    0.000000  , weight:   0.00025000
  | k-point: 339 at     0.050000    0.450000    0.100000  , weight:   0.00025000
  | k-point: 340 at     0.050000    0.450000    0.150000  , weight:   0.00025000
  | k-point: 341 at     0.050000    0.450000    0.200000  , weight:   0.00025000
  | k-point: 342 at     0.050000    0.450000    0.300000  , weight:   0.00025000
  | k-point: 343 at     0.050000    0.450000    0.350000  , weight:   0.00025000
  | k-point: 344 at     0.050000    0.450000    0.400000  , weight:   0.00025000
  | k-point: 345 at     0.050000    0.450000    0.500000  , weight:   0.00025000
  | k-point: 346 at     0.050000    0.450000    0.550000  , weight:   0.00025000
  | k-point: 347 at     0.050000    0.450000    0.600000  , weight:   0.00025000
  | k-point: 348 at     0.050000    0.450000    0.700000  , weight:   0.00025000
  | k-point: 349 at     0.050000    0.450000    0.750000  , weight:   0.00025000
  | k-point: 350 at     0.050000    0.450000    0.800000  , weight:   0.00025000
  | k-point: 351 at     0.050000    0.450000    0.900000  , weight:   0.00025000
  | k-point: 352 at     0.050000    0.450000    0.950000  , weight:   0.00025000
  | k-point: 353 at     0.050000    0.500000    0.000000  , weight:   0.00025000
  | k-point: 354 at     0.050000    0.500000    0.100000  , weight:   0.00025000
  | k-point: 355 at     0.050000    0.500000    0.150000  , weight:   0.00025000
  | k-point: 356 at     0.050000    0.500000    0.200000  , weight:   0.00025000
  | k-point: 357 at     0.050000    0.500000    0.300000  , weight:   0.00025000
  | k-point: 358 at     0.050000    0.500000    0.350000  , weight:   0.00025000
  | k-point: 359 at     0.050000    0.500000    0.400000  , weight:   0.00025000
  | k-point: 360 at     0.050000    0.500000    0.500000  , weight:   0.00025000
  | k-point: 361 at     0.050000    0.500000    0.550000  , weight:   0.00025000
  | k-point: 362 at     0.050000    0.500000    0.600000  , weight:   0.00025000
  | k-point: 363 at     0.050000    0.500000    0.700000  , weight:   0.00025000
  | k-point: 364 at     0.050000    0.500000    0.750000  , weight:   0.00025000
  | k-point: 365 at     0.050000    0.500000    0.800000  , weight:   0.00025000
  | k-point: 366 at     0.050000    0.500000    0.900000  , weight:   0.00025000
  | k-point: 367 at     0.050000    0.500000    0.950000  , weight:   0.00025000
  | k-point: 368 at     0.050000    0.550000    0.000000  , weight:   0.00025000
  | k-point: 369 at     0.050000    0.550000    0.100000  , weight:   0.00025000
  | k-point: 370 at     0.050000    0.550000    0.150000  , weight:   0.00025000
  | k-point: 371 at     0.050000    0.550000    0.200000  , weight:   0.00025000
  | k-point: 372 at     0.050000    0.550000    0.300000  , weight:   0.00025000
  | k-point: 373 at     0.050000    0.550000    0.350000  , weight:   0.00025000
  | k-point: 374 at     0.050000    0.550000    0.400000  , weight:   0.00025000
  | k-point: 375 at     0.050000    0.550000    0.500000  , weight:   0.00025000
  | k-point: 376 at     0.050000    0.550000    0.550000  , weight:   0.00025000
  | k-point: 377 at     0.050000    0.550000    0.600000  , weight:   0.00025000
  | k-point: 378 at     0.050000    0.550000    0.700000  , weight:   0.00025000
  | k-point: 379 at     0.050000    0.550000    0.750000  , weight:   0.00025000
  | k-point: 380 at     0.050000    0.550000    0.800000  , weight:   0.00025000
  | k-point: 381 at     0.050000    0.550000    0.900000  , weight:   0.00025000
  | k-point: 382 at     0.050000    0.550000    0.950000  , weight:   0.00025000
  | k-point: 383 at     0.050000    0.600000    0.000000  , weight:   0.00025000
  | k-point: 384 at     0.050000    0.600000    0.100000  , weight:   0.00025000
  | k-point: 385 at     0.050000    0.600000    0.150000  , weight:   0.00025000
  | k-point: 386 at     0.050000    0.600000    0.200000  , weight:   0.00025000
  | k-point: 387 at     0.050000    0.600000    0.300000  , weight:   0.00025000
  | k-point: 388 at     0.050000    0.600000    0.350000  , weight:   0.00025000
  | k-point: 389 at     0.050000    0.600000    0.400000  , weight:   0.00025000
  | k-point: 390 at     0.050000    0.600000    0.500000  , weight:   0.00025000
  | k-point: 391 at     0.050000    0.600000    0.550000  , weight:   0.00025000
  | k-point: 392 at     0.050000    0.600000    0.600000  , weight:   0.00025000
  | k-point: 393 at     0.050000    0.600000    0.700000  , weight:   0.00025000
  | k-point: 394 at     0.050000    0.600000    0.750000  , weight:   0.00025000
  | k-point: 395 at     0.050000    0.600000    0.800000  , weight:   0.00025000
  | k-point: 396 at     0.050000    0.600000    0.900000  , weight:   0.00025000
  | k-point: 397 at     0.050000    0.600000    0.950000  , weight:   0.00025000
  | k-point: 398 at     0.050000    0.650000    0.000000  , weight:   0.00025000
  | k-point: 399 at     0.050000    0.650000    0.100000  , weight:   0.00025000
  | k-point: 400 at     0.050000    0.650000    0.150000  , weight:   0.00025000
  | k-point: 401 at     0.050000    0.650000    0.200000  , weight:   0.00025000
  | k-point: 402 at     0.050000    0.650000    0.300000  , weight:   0.00025000
  | k-point: 403 at     0.050000    0.650000    0.350000  , weight:   0.00025000
  | k-point: 404 at     0.050000    0.650000    0.400000  , weight:   0.00025000
  | k-point: 405 at     0.050000    0.650000    0.500000  , weight:   0.00025000
  | k-point: 406 at     0.050000    0.650000    0.550000  , weight:   0.00025000
  | k-point: 407 at     0.050000    0.650000    0.600000  , weight:   0.00025000
  | k-point: 408 at     0.050000    0.650000    0.700000  , weight:   0.00025000
  | k-point: 409 at     0.050000    0.650000    0.750000  , weight:   0.00025000
  | k-point: 410 at     0.050000    0.650000    0.800000  , weight:   0.00025000
  | k-point: 411 at     0.050000    0.650000    0.900000  , weight:   0.00025000
  | k-point: 412 at     0.050000    0.650000    0.950000  , weight:   0.00025000
  | k-point: 413 at     0.050000    0.700000    0.000000  , weight:   0.00025000
  | k-point: 414 at     0.050000    0.700000    0.100000  , weight:   0.00025000
  | k-point: 415 at     0.050000    0.700000    0.150000  , weight:   0.00025000
  | k-point: 416 at     0.050000    0.700000    0.200000  , weight:   0.00025000
  | k-point: 417 at     0.050000    0.700000    0.300000  , weight:   0.00025000
  | k-point: 418 at     0.050000    0.700000    0.350000  , weight:   0.00025000
  | k-point: 419 at     0.050000    0.700000    0.400000  , weight:   0.00025000
  | k-point: 420 at     0.050000    0.700000    0.500000  , weight:   0.00025000
  | k-point: 421 at     0.050000    0.700000    0.550000  , weight:   0.00025000
  | k-point: 422 at     0.050000    0.700000    0.600000  , weight:   0.00025000
  | k-point: 423 at     0.050000    0.700000    0.700000  , weight:   0.00025000
  | k-point: 424 at     0.050000    0.700000    0.750000  , weight:   0.00025000
  | k-point: 425 at     0.050000    0.700000    0.800000  , weight:   0.00025000
  | k-point: 426 at     0.050000    0.700000    0.900000  , weight:   0.00025000
  | k-point: 427 at     0.050000    0.700000    0.950000  , weight:   0.00025000
  | k-point: 428 at     0.050000    0.750000    0.000000  , weight:   0.00025000
  | k-point: 429 at     0.050000    0.750000    0.100000  , weight:   0.00025000
  | k-point: 430 at     0.050000    0.750000    0.150000  , weight:   0.00025000
  | k-point: 431 at     0.050000    0.750000    0.200000  , weight:   0.00025000
  | k-point: 432 at     0.050000    0.750000    0.300000  , weight:   0.00025000
  | k-point: 433 at     0.050000    0.750000    0.350000  , weight:   0.00025000
  | k-point: 434 at     0.050000    0.750000    0.400000  , weight:   0.00025000
  | k-point: 435 at     0.050000    0.750000    0.500000  , weight:   0.00025000
  | k-point: 436 at     0.050000    0.750000    0.550000  , weight:   0.00025000
  | k-point: 437 at     0.050000    0.750000    0.600000  , weight:   0.00025000
  | k-point: 438 at     0.050000    0.750000    0.700000  , weight:   0.00025000
  | k-point: 439 at     0.050000    0.750000    0.750000  , weight:   0.00025000
  | k-point: 440 at     0.050000    0.750000    0.800000  , weight:   0.00025000
  | k-point: 441 at     0.050000    0.750000    0.900000  , weight:   0.00025000
  | k-point: 442 at     0.050000    0.750000    0.950000  , weight:   0.00025000
  | k-point: 443 at     0.050000    0.800000    0.000000  , weight:   0.00025000
  | k-point: 444 at     0.050000    0.800000    0.100000  , weight:   0.00025000
  | k-point: 445 at     0.050000    0.800000    0.150000  , weight:   0.00025000
  | k-point: 446 at     0.050000    0.800000    0.200000  , weight:   0.00025000
  | k-point: 447 at     0.050000    0.800000    0.300000  , weight:   0.00025000
  | k-point: 448 at     0.050000    0.800000    0.350000  , weight:   0.00025000
  | k-point: 449 at     0.050000    0.800000    0.400000  , weight:   0.00025000
  | k-point: 450 at     0.050000    0.800000    0.500000  , weight:   0.00025000
  | k-point: 451 at     0.050000    0.800000    0.550000  , weight:   0.00025000
  | k-point: 452 at     0.050000    0.800000    0.600000  , weight:   0.00025000
  | k-point: 453 at     0.050000    0.800000    0.700000  , weight:   0.00025000
  | k-point: 454 at     0.050000    0.800000    0.750000  , weight:   0.00025000
  | k-point: 455 at     0.050000    0.800000    0.800000  , weight:   0.00025000
  | k-point: 456 at     0.050000    0.800000    0.900000  , weight:   0.00025000
  | k-point: 457 at     0.050000    0.800000    0.950000  , weight:   0.00025000
  | k-point: 458 at     0.050000    0.850000    0.000000  , weight:   0.00025000
  | k-point: 459 at     0.050000    0.850000    0.100000  , weight:   0.00025000
  | k-point: 460 at     0.050000    0.850000    0.150000  , weight:   0.00025000
  | k-point: 461 at     0.050000    0.850000    0.200000  , weight:   0.00025000
  | k-point: 462 at     0.050000    0.850000    0.300000  , weight:   0.00025000
  | k-point: 463 at     0.050000    0.850000    0.350000  , weight:   0.00025000
  | k-point: 464 at     0.050000    0.850000    0.400000  , weight:   0.00025000
  | k-point: 465 at     0.050000    0.850000    0.500000  , weight:   0.00025000
  | k-point: 466 at     0.050000    0.850000    0.550000  , weight:   0.00025000
  | k-point: 467 at     0.050000    0.850000    0.600000  , weight:   0.00025000
  | k-point: 468 at     0.050000    0.850000    0.700000  , weight:   0.00025000
  | k-point: 469 at     0.050000    0.850000    0.750000  , weight:   0.00025000
  | k-point: 470 at     0.050000    0.850000    0.800000  , weight:   0.00025000
  | k-point: 471 at     0.050000    0.850000    0.900000  , weight:   0.00025000
  | k-point: 472 at     0.050000    0.850000    0.950000  , weight:   0.00025000
  | k-point: 473 at     0.050000    0.900000    0.000000  , weight:   0.00025000
  | k-point: 474 at     0.050000    0.900000    0.100000  , weight:   0.00025000
  | k-point: 475 at     0.050000    0.900000    0.150000  , weight:   0.00025000
  | k-point: 476 at     0.050000    0.900000    0.200000  , weight:   0.00025000
  | k-point: 477 at     0.050000    0.900000    0.300000  , weight:   0.00025000
  | k-point: 478 at     0.050000    0.900000    0.350000  , weight:   0.00025000
  | k-point: 479 at     0.050000    0.900000    0.400000  , weight:   0.00025000
  | k-point: 480 at     0.050000    0.900000    0.500000  , weight:   0.00025000
  | k-point: 481 at     0.050000    0.900000    0.550000  , weight:   0.00025000
  | k-point: 482 at     0.050000    0.900000    0.600000  , weight:   0.00025000
  | k-point: 483 at     0.050000    0.900000    0.700000  , weight:   0.00025000
  | k-point: 484 at     0.050000    0.900000    0.750000  , weight:   0.00025000
  | k-point: 485 at     0.050000    0.900000    0.800000  , weight:   0.00025000
  | k-point: 486 at     0.050000    0.900000    0.900000  , weight:   0.00025000
  | k-point: 487 at     0.050000    0.900000    0.950000  , weight:   0.00025000
  | k-point: 488 at     0.050000    0.950000    0.000000  , weight:   0.00025000
  | k-point: 489 at     0.050000    0.950000    0.100000  , weight:   0.00025000
  | k-point: 490 at     0.050000    0.950000    0.150000  , weight:   0.00025000
  | k-point: 491 at     0.050000    0.950000    0.200000  , weight:   0.00025000
  | k-point: 492 at     0.050000    0.950000    0.300000  , weight:   0.00025000
  | k-point: 493 at     0.050000    0.950000    0.350000  , weight:   0.00025000
  | k-point: 494 at     0.050000    0.950000    0.400000  , weight:   0.00025000
  | k-point: 495 at     0.050000    0.950000    0.500000  , weight:   0.00025000
  | k-point: 496 at     0.050000    0.950000    0.550000  , weight:   0.00025000
  | k-point: 497 at     0.050000    0.950000    0.600000  , weight:   0.00025000
  | k-point: 498 at     0.050000    0.950000    0.700000  , weight:   0.00025000
  | k-point: 499 at     0.050000    0.950000    0.750000  , weight:   0.00025000
  | k-point: 500 at     0.050000    0.950000    0.800000  , weight:   0.00025000
  | k-point: 501 at     0.050000    0.950000    0.900000  , weight:   0.00025000
  | k-point: 502 at     0.050000    0.950000    0.950000  , weight:   0.00025000
  | k-point: 503 at     0.100000    0.000000    0.000000  , weight:   0.00025000
  | k-point: 504 at     0.100000    0.000000    0.100000  , weight:   0.00025000
  | k-point: 505 at     0.100000    0.000000    0.150000  , weight:   0.00025000
  | k-point: 506 at     0.100000    0.000000    0.200000  , weight:   0.00025000
  | k-point: 507 at     0.100000    0.000000    0.300000  , weight:   0.00025000
  | k-point: 508 at     0.100000    0.000000    0.350000  , weight:   0.00025000
  | k-point: 509 at     0.100000    0.000000    0.400000  , weight:   0.00025000
  | k-point: 510 at     0.100000    0.000000    0.500000  , weight:   0.00025000
  | k-point: 511 at     0.100000    0.000000    0.550000  , weight:   0.00025000
  | k-point: 512 at     0.100000    0.000000    0.600000  , weight:   0.00025000
  | k-point: 513 at     0.100000    0.000000    0.700000  , weight:   0.00025000
  | k-point: 514 at     0.100000    0.000000    0.750000  , weight:   0.00025000
  | k-point: 515 at     0.100000    0.000000    0.800000  , weight:   0.00025000
  | k-point: 516 at     0.100000    0.000000    0.900000  , weight:   0.00025000
  | k-point: 517 at     0.100000    0.000000    0.950000  , weight:   0.00025000
  | k-point: 518 at     0.100000    0.050000    0.000000  , weight:   0.00025000
  | k-point: 519 at     0.100000    0.050000    0.100000  , weight:   0.00025000
  | k-point: 520 at     0.100000    0.050000    0.150000  , weight:   0.00025000
  | k-point: 521 at     0.100000    0.050000    0.200000  , weight:   0.00025000
  | k-point: 522 at     0.100000    0.050000    0.300000  , weight:   0.00025000
  | k-point: 523 at     0.100000    0.050000    0.350000  , weight:   0.00025000
  | k-point: 524 at     0.100000    0.050000    0.400000  , weight:   0.00025000
  | k-point: 525 at     0.100000    0.050000    0.500000  , weight:   0.00025000
  | k-point: 526 at     0.100000    0.050000    0.550000  , weight:   0.00025000
  | k-point: 527 at     0.100000    0.050000    0.600000  , weight:   0.00025000
  | k-point: 528 at     0.100000    0.050000    0.700000  , weight:   0.00025000
  | k-point: 529 at     0.100000    0.050000    0.750000  , weight:   0.00025000
  | k-point: 530 at     0.100000    0.050000    0.800000  , weight:   0.00025000
  | k-point: 531 at     0.100000    0.050000    0.900000  , weight:   0.00025000
  | k-point: 532 at     0.100000    0.050000    0.950000  , weight:   0.00025000
  | k-point: 533 at     0.100000    0.100000    0.000000  , weight:   0.00025000
  | k-point: 534 at     0.100000    0.100000    0.100000  , weight:   0.00025000
  | k-point: 535 at     0.100000    0.100000    0.150000  , weight:   0.00025000
  | k-point: 536 at     0.100000    0.100000    0.200000  , weight:   0.00025000
  | k-point: 537 at     0.100000    0.100000    0.300000  , weight:   0.00025000
[...]
     66       2.00000          -3.523944          -95.89139
     67       2.00000          -3.523933          -95.89108
     68       2.00000          -3.523870          -95.88938
     69       2.00000          -3.523792          -95.88726
     70       2.00000          -3.523771          -95.88669
     71       2.00000          -3.523700          -95.88475
     72       2.00000          -3.523646          -95.88328
     73       2.00000          -3.523582          -95.88153
     74       2.00000          -3.523338          -95.87489
     75       2.00000          -3.523062          -95.86740
     76       2.00000          -3.523024          -95.86637
     77       2.00000          -3.522891          -95.86275
     78       2.00000          -3.522869          -95.86215
     79       2.00000          -3.522717          -95.85801
     80       2.00000          -3.522423          -95.85002
     81       2.00000          -0.664551          -18.08336
     82       2.00000          -0.580256          -15.78957
     83       2.00000          -0.579533          -15.76989
     84       2.00000          -0.576007          -15.67396
     85       2.00000          -0.575266          -15.65379
     86       2.00000          -0.514881          -14.01062
     87       2.00000          -0.513048          -13.96076
     88       2.00000          -0.512230          -13.93847
     89       2.00000          -0.510783          -13.89913
     90       2.00000          -0.507442          -13.80820
     91       2.00000          -0.506936          -13.79443
     92       2.00000          -0.482199          -13.12130
     93       2.00000          -0.481479          -13.10172
     94       2.00000          -0.479492          -13.04765
     95       2.00000          -0.478430          -13.01875
     96       2.00000          -0.331543           -9.02175
     97       2.00000          -0.330097           -8.98239
     98       2.00000          -0.329494           -8.96599
     99       2.00000          -0.329060           -8.95418
    100       2.00000          -0.328852           -8.94852
    101       2.00000          -0.328067           -8.92717
    102       2.00000          -0.272677           -7.41991
    103       2.00000          -0.270736           -7.36710
    104       2.00000          -0.269275           -7.32735
    105       2.00000          -0.268843           -7.31560
    106       2.00000          -0.267174           -7.27017
    107       2.00000          -0.266661           -7.25621
    108       2.00000          -0.264870           -7.20747
    109       2.00000          -0.264192           -7.18903
    110       2.00000          -0.224252           -6.10219
    111       2.00000          -0.223638           -6.08551
    112       2.00000          -0.222171           -6.04559
    113       0.00000          -0.200759           -5.46292
    114       0.00000          -0.198474           -5.40076
    115       0.00000          -0.197430           -5.37234
    116       0.00000          -0.196188           -5.33855
    117       0.00000          -0.195259           -5.31327
    118       0.00000          -0.193717           -5.27131
    119       0.00000          -0.164442           -4.47470
    120       0.00000          -0.163996           -4.46256
    121       0.00000          -0.163815           -4.45762
    122       0.00000          -0.163306           -4.44378
    123       0.00000          -0.129784           -3.53161
    124       0.00000          -0.129185           -3.51529
    125       0.00000          -0.128922           -3.50815
    126       0.00000          -0.102547           -2.79044
    127       0.00000          -0.101445           -2.76047
    128       0.00000          -0.101268           -2.75563
    129       0.00000          -0.100099           -2.72383
    130       0.00000          -0.097423           -2.65102
    131       0.00000          -0.096753           -2.63280
    132       0.00000          -0.096085           -2.61460
    133       0.00000          -0.095896           -2.60945
    134       0.00000          -0.092134           -2.50710
    135       0.00000           0.064601            1.75789
    136       0.00000           0.065679            1.78722
    137       0.00000           0.080411            2.18809
    138       0.00000           0.083031            2.25939
    139       0.00000           0.085977            2.33955
    140       0.00000           0.088219            2.40057
    141       0.00000           0.089719            2.44139
    142       0.00000           0.148180            4.03217
    143       0.00000           0.149372            4.06463
    144       0.00000           0.150728            4.10151
    145       0.00000           0.151459            4.12140
    146       0.00000           0.153619            4.18018
    147       0.00000           0.155879            4.24168
    148       0.00000           0.167226            4.55046
    149       0.00000           0.168687            4.59020
    150       0.00000           0.169743            4.61895
    151       0.00000           0.170241            4.63248
    152       0.00000           0.171126            4.65658
    153       0.00000           0.171635            4.67044
    154       0.00000           0.172744            4.70060
    155       0.00000           0.173677            4.72600
    156       0.00000           0.179715            4.89029
    157       0.00000           0.181914            4.95012
    158       0.00000           0.184503            5.02057
    159       0.00000           0.185027            5.03485
    160       0.00000           0.186986            5.08814

  What follows are estimated values for band gap, HOMO, LUMO, etc.
  | They are estimated on a discrete k-point grid and not necessarily exact.
  | For converged numbers, create a DOS and/or band structure plot on a denser k-grid.

  Highest occupied state (VBM) at     -6.04558944 eV (relative to internal zero)
  | Occupation number:      2.00000000
  | K-point:       1 at    0.000000    0.000000    0.000000 (in units of recip. lattice)

  Lowest unoccupied state (CBM) at    -5.50900617 eV (relative to internal zero)
  | Occupation number:      0.00000736
  | K-point:     192 at    0.000000    0.850000    0.850000 (in units of recip. lattice)

  ESTIMATED overall HOMO-LUMO gap:      0.53658328 eV between HOMO at k-point 1 and LUMO at k-point 192
  | This appears to be an indirect band gap.
  | Smallest direct gap :      0.58267033 eV for k_point 1 at    0.000000    0.000000    0.000000 (in units of recip. lattice)
  The gap value is above 0.2 eV. Unless you are using a very sparse k-point grid,
  this system is most likely an insulator or a semiconductor.

  | Chemical Potential                          :    -5.51217603 eV
  | Note that, for insulating systems, the printed 'chemical potential' value is not uniquely defined.
  | It can be anywhere in the energy gap, as long as it correctly separates occupied and unoccupied states.
  | In systems with a gap, the physically relevant chemical potential is the VBM or HOMO.

  Self-consistency cycle converged.


------------------------------------------------------------
  End self-consistency iteration #    15       :  max(cpu_time)    wall_clock(cpu1)
  | Time for this iteration                     :       77.694 s          78.080 s
  | Charge density & force component update     :       46.375 s          46.567 s
  | Density mixing                              :        0.005 s           0.005 s
  | Hartree multipole update                    :        0.003 s           0.003 s
  | Hartree multipole summation                 :        2.853 s           2.866 s
  | Hartree pot. SCF incomplete forces          :        2.094 s           2.105 s
  | Integration                                 :        2.388 s           2.400 s
  | Solution of K.-S. eqns.                     :       23.953 s          24.111 s
  | Total energy evaluation                     :        0.013 s           0.012 s

  Partial memory accounting:
  | Current value for overall tracked memory usage:
  |   Minimum:      214.640 MB (on task  0)
  |   Maximum:      216.164 MB (on task  1)
  |   Average:      214.979 MB
  | Peak value for overall tracked memory usage:
  |   Minimum:      255.038 MB (on task 33 after allocating d_wave)
  |   Maximum:      259.037 MB (on task  1 after allocating d_wave)
  |   Average:      256.680 MB
  | Largest tracked array allocation so far:
  |   Minimum:      169.102 MB (KS_eigenvector_complex on task  0)
  |   Maximum:      170.625 MB (KS_eigenvector_complex on task  1)
  |   Average:      169.440 MB
  Note:  These values currently only include a subset of arrays which are explicitly tracked.
  The "true" memory usage will be greater.
------------------------------------------------------------
  Removing unitary transformations (pure translations, rotations) from forces on atoms.
  Atomic forces before filtering:
  | Net force on center of mass :  -0.132634E-03 -0.734269E-04 -0.851500E-04 eV/A
  Atomic forces after filtering:
  | Net force on center of mass :   0.122654E-15 -0.557519E-16 -0.356812E-15 eV/A

  Energy and forces in a compact form:
  | Total energy uncorrected      :         -0.126000242917151E+06 eV
  | Total energy corrected        :         -0.126000242917151E+06 eV  <-- do not rely on this value for anything but (periodic) metals
  | Electronic free energy        :         -0.126000242917151E+06 eV
  Total atomic forces (unitary forces cleaned) [eV/Ang]:
  |    1          0.105119360063394E+00          0.157812053715743E+00          0.286085722884957E+00
  |    2          0.132862071705100E+00         -0.808368939908402E-01          0.139287459167148E+00
  |    3         -0.145256700891267E+00          0.232771501571975E+00         -0.185266471113758E+00
  |    4         -0.501965463724708E+00         -0.195287867470677E+00         -0.543193730643463E-01
  |    5          0.123894834814577E+00          0.523362065832188E+00         -0.651771204354087E+00
  |    6         -0.483916381026403E-01          0.783025971987390E-02         -0.760949724545409E+00
  |    7         -0.935268748450468E-01         -0.343160940698457E+00          0.488157780687925E+00
  |    8          0.243113759312682E+00         -0.163401693622428E+00          0.393124576496559E+00
  |    9         -0.259350847322765E-01         -0.426978399113728E-01         -0.483044654831349E+00
  |   10         -0.186065493053091E+00          0.231357227858931E+00          0.286859320244862E+00
  |   11         -0.215085440086081E+00         -0.629158658472509E-01         -0.341266200743998E+00
  |   12          0.965939184387864E+00          0.111324201208469E+00          0.648435275053146E+00
  |   13          0.451361317577318E+00         -0.239032366365628E+00          0.346748547251909E+00
  |   14         -0.111223836728766E+01         -0.167411319936414E-01          0.314935991026324E+00
  |   15          0.207742898078440E+00         -0.191740324367823E+00          0.253198098638238E+00
  |   16          0.984316367833920E-01          0.713576143609385E-01         -0.680215142798121E+00

  ------------------------------------ 
  Start decomposition of the XC Energy 
  ------------------------------------ 
  X and C from original XC functional choice 
  Hartree-Fock Energy :          0.000000000 Ha              0.000000000 eV
  X Energy            :       -324.439289915 Ha          -8828.442264777 eV
  C Energy            :         -8.767471277 Ha           -238.575032000 eV
  XC Energy w/o HF    :       -333.206761191 Ha          -9067.017296778 eV
  Total XC Energy     :       -333.206761191 Ha          -9067.017296778 eV
  ------------------------------------ 
  LDA X and C from self-consistent density 
  X Energy LDA        :       -300.165396537 Ha          -8167.916018755 eV
  C Energy LDA        :        -17.165733277 Ha           -467.103368417 eV
  ------------------------------------ 
  End decomposition of the XC Energy 
  ------------------------------------ 

------------------------------------------------------------
  Post-scf processing of Kohn-Sham eigenvalues on a denser k-point grid.
  | Using dos_kgrid_factors to write post-scf eigenvalues to a separate file.
  | Electron chemical potential:    -5.512176032812 eV.
  Integrating Hamiltonian matrix: batch-based integration.
  Time summed over all CPUs for integration: real work       82.470 s, elapsed       84.750 s
          Integrate hamiltonian matrix                 :  max(cpu_time)    wall_clock(cpu1)
          | Total time                                  :        2.384 s           2.396 s
  Processing batch of k-points:     1     1     1
  Starting LAPACK eigensolver
  Finished Cholesky decomposition
  | Time :     0.017 s
  Finished transformation to standard eigenproblem
  | Time :     0.032 s
      Allocating      0.005 MB for offd
      Allocating      0.010 MB for tau
      Allocating      3.115 MB for tmp_real
      Allocating      6.230 MB for tmp_cmplx
      Deallocating offd
      Deallocating tau
      Deallocating tmp_real
      Deallocating tmp_cmplx
  Finished solving standard eigenproblem
  | Time :     0.159 s
  Finished back-transformation of eigenvectors
  | Time :     0.006 s

  Perturbative DOS                                        :  max(cpu_time) wall_clock(cpu1)
  | Total Time                                            :         65.504          230.918
  ------------------------------------------------------------

------------------------------------------------------------------------------
  Final output of selected total energy values:

  The following output summarizes some interesting total energy values
  at the end of a run (AFTER all relaxation, molecular dynamics, etc.).

  | Total energy of the DFT / Hartree-Fock s.c.f. calculation      :        -126000.242917151 eV
  | Final zero-broadening corrected energy (caution - metals only) :        -126000.242917151 eV
  | For reference only, the value of 1 Hartree used in FHI-aims is :             27.211384500 eV
  | For reference only, the overall average (free atom contribution
  | + realspace contribution) of the electrostatic potential after
  | s.c.f. convergence is                                          :            -13.352120864 eV

  Before relying on these values, please be sure to understand exactly which
  total energy value is referred to by a given number. Different objects may
  all carry the same name 'total energy'. Definitions:

  Total energy of the DFT / Hartree-Fock s.c.f. calculation:
  | Note that this energy does not include ANY quantities calculated after the
  | s.c.f. cycle, in particular not ANY RPA, MP2, etc. many-body perturbation terms.

  Final zero-broadening corrected energy:
  | For metallic systems only, a broadening of the occupation numbers at the Fermi
  | level can be extrapolated back to zero broadening by an electron-gas inspired
  | formula. For all systems that are not real metals, this value can be
  | meaningless and should be avoided.

------------------------------------------------------------------------------
  Methods described in the following list of references were used in this FHI-aims run.
  If you publish the results, please make sure to cite these reference if they apply.
  FHI-aims is an academic code, and for our developers (often, Ph.D. students
  and postdocs), scientific credit in the community is essential.
  Thank you for helping us!

  For any use of FHI-aims, please cite:

    Volker Blum, Ralf Gehrke, Felix Hanke, Paula Havu, Ville Havu,
    Xinguo Ren, Karsten Reuter, and Matthias Scheffler
    'Ab initio molecular simulations with numeric atom-centered orbitals'
    Computer Physics Communications 180, 2175-2196 (2009)
    http://doi.org/10.1016/j.cpc.2009.06.022


  The provided symmetry information was generated with SPGlib:

    Atsushi Togo, Yusuke Seto, Dimitar Pashov
    SPGlib 1.7.3 obtained from http://spglib.sourceforge.net
    Copyright (C) 2008 Atsushi Togo


  The ELSI infrastructure was used in your run to solve the Kohn-Sham electronic structure.
  Please check out http://elsi-interchange.org to learn more.
  If scalability is important for your project, please acknowledge ELSI by citing:

    V. W-z. Yu, F. Corsetti, A. Garcia, W. P. Huhn, M. Jacquelin, W. Jia,
    B. Lange, L. Lin, J. Lu, W. Mi, A. Seifitokaldani, A. Vazquez-Mayagoitia,
    C. Yang, H. Yang, and V. Blum
    'ELSI: A unified software interface for Kohn-Sham electronic structure solvers'
    Computer Physics Communications 222, 267-285 (2018).
    http://doi.org/10.1016/j.cpc.2017.09.007


  For the real-space grid partitioning and parallelization used in this calculation, please cite:

    Ville Havu, Volker Blum, Paula Havu, and Matthias Scheffler,
    'Efficient O(N) integration for all-electron electronic structure calculation'
    'using numerically tabulated basis functions'
    Journal of Computational Physics 228, 8367-8379 (2009).
    http://doi.org/10.1016/j.jcp.2009.08.008

  Of course, there are many other important community references, e.g., those cited in the
  above references. Our list is limited to references that describe implementations in the
  FHI-aims code. The reason is purely practical (length of this list) - please credit others as well.

------------------------------------------------------------
          Leaving FHI-aims.
          Date     :  20240112, Time     :  232305.397

          Computational steps:
          | Number of self-consistency cycles          :           15
          | Number of SCF (re)initializations          :            1

          Detailed time accounting                     :  max(cpu_time)    wall_clock(cpu1)
          | Total time                                  :      902.319 s         935.228 s
          | Preparation time                            :        0.150 s           0.160 s
          | Boundary condition initalization            :        0.191 s           0.197 s
          | Grid partitioning                           :        0.329 s           0.333 s
          | Preloading free-atom quantities on grid     :        0.568 s           0.573 s
          | Free-atom superposition energy              :        0.044 s           0.045 s
          | Total time for integrations                 :       39.367 s          39.548 s
          | Total time for solution of K.-S. equations  :      406.709 s         409.430 s
          | Total time for density & force components   :      199.134 s         200.004 s
          | Total time for mixing & preconditioning     :        4.597 s           4.608 s
          | Total time for Hartree multipole update     :        0.043 s           0.044 s
          | Total time for Hartree multipole sum        :       13.814 s          13.867 s
          | Total time for total energy evaluation      :        0.208 s           0.189 s
          | Total time NSC force correction             :        4.187 s           4.210 s

          Partial memory accounting:
          | Residual value for overall tracked memory usage across tasks:     0.000000 MB (should be 0.000000 MB)
          | Peak values for overall tracked memory usage:
          |   Minimum:      255.038 MB (on task 33 after allocating d_wave)
          |   Maximum:      259.037 MB (on task  1 after allocating d_wave)
          |   Average:      256.680 MB
          | Largest tracked array allocation:
          |   Minimum:      169.102 MB (KS_eigenvector_complex on task  0)
          |   Maximum:      170.625 MB (KS_eigenvector_complex on task  1)
          |   Average:      169.440 MB
          Note:  These values currently only include a subset of arrays which are explicitly tracked.
          The "true" memory usage will be greater.

          Have a nice day.
------------------------------------------------------------
